<VTKFile byte_order="LittleEndian" type="PolyData" version="0.1">
    <PolyData>
        <Piece NumberOfLines="19" NumberOfPoints="16">
            <Points>
            <DataArray Name="coords" NumberOfComponents="3" type="Float64">3.1689497716894977	14.881278538812785	0.0	5.856209150326797	61.06535947712418	0.0	22.113113113113112	85.29929929929929	0.0	24.82055852644088	29.747474747474747	0.0	46.890829694323145	52.956331877729255	0.0	49.0	1.75	0.0	53.92549019607843	15.964705882352941	0.0	58.11068702290076	82.88167938931298	0.0	69.70588235294117	86.99019607843137	0.0	72.21899736147758	39.906332453825854	0.0	78.96319018404908	83.19018404907976	0.0	78.58	8.802857142857142	0.0	85.5183908045977	61.14137931034483	0.0	95.77027027027027	4.0675675675675675	0.0	97.2	22.306666666666665	0.0	96.60416666666667	95.66666666666667	0.0</DataArray>
			</Points>
            <Lines>
            <DataArray Name="connectivity" NumberOfComponents="1" type="Int64">0	3	1	2	1	3	2	4	2	7	3	4	3	6	4	9	5	6	6	9	6	11	7	8	8	10	9	11	9	12	10	12	11	13	12	15	13	14</DataArray>
			<DataArray Name="offsets" NumberOfComponents="1" type="Int64">2	4	6	8	10	12	14	16	18	20	22	24	26	28	30	32	34	36	38</DataArray>
			</Lines>
            <PointData>
            <DataArray Name="network | labels | pore | all" NumberOfComponents="1" type="Int64">1	1	1	1	1	1	1	1	1	1	1	1	1	1	1	1</DataArray>
			<DataArray Name="network | properties | pore | equivalent_diameter" NumberOfComponents="1" type="Float64">16.698486766680407	24.17471718621419	35.66463661935206	46.291059112848984	24.148368712786887	9.0270333367641	25.482389366284572	18.26441241104166	11.396070970426017	31.066309322306914	14.406180819073164	21.11004122822376	33.282403818227905	9.706684619910241	9.772050238058398	7.817640190446719</DataArray>
			<DataArray Name="network | properties | pore | extended_diameter" NumberOfComponents="1" type="Float64">25.45584487915039	29.120439529418945	34.0	37.947330474853516	25.45584487915039	14.142135620117188	22.0	14.0	12.806248664855957	33.2866325378418	14.142135620117188	20.0	33.2866325378418	15.620499610900879	8.9442720413208	12.806248664855957</DataArray>
			<DataArray Name="network | properties | pore | inscribed_diameter" NumberOfComponents="1" type="Float64">8.0	14.142135620117188	28.0	36.22154235839844	18.0	6.0	20.0	12.649110794067383	8.0	22.803508758544922	12.0	16.124515533447266	25.612497329711914	7.211102485656738	5.656854152679443	6.0</DataArray>
			<DataArray Name="network | properties | pore | phase" NumberOfComponents="1" type="Int64">1	1	1	1	1	1	1	1	1	1	1	1	1	1	1	1</DataArray>
			<DataArray Name="network | properties | pore | region_label" NumberOfComponents="1" type="Int64">1	2	3	4	5	6	7	8	9	10	11	12	13	14	15	16</DataArray>
			<DataArray Name="network | properties | pore | region_volume" NumberOfComponents="1" type="Float64">219.0	459.0	999.0	1683.0	458.0	64.0	510.0	262.0	102.0	758.0	163.0	350.0	870.0	74.0	75.0	48.0</DataArray>
			<DataArray Name="network | properties | pore | surface_area" NumberOfComponents="1" type="Float64">45.0	56.0	145.0	125.0	74.0	20.0	71.0	60.0	28.0	76.0	37.0	71.0	129.0	34.0	41.0	27.0</DataArray>
			<DataArray Name="network | properties | pore | volume" NumberOfComponents="1" type="Float64">219.0	459.0	999.0	1683.0	458.0	64.0	510.0	262.0	102.0	758.0	163.0	350.0	870.0	74.0	75.0	48.0</DataArray>
			</PointData>
            <CellData>
            <DataArray Name="network | labels | throat | all" NumberOfComponents="1" type="Int64">1	1	1	1	1	1	1	1	1	1	1	1	1	1	1	1	1	1	1</DataArray>
			<DataArray Name="network | properties | throat | cross_sectional_area" NumberOfComponents="1" type="Float64">24.0	18.0	12.0	2.0	1.0	25.0	18.0	16.0	14.0	8.0	7.0	12.0	13.0	4.0	26.0	11.0	6.0	1.0	2.0</DataArray>
			<DataArray Name="network | properties | throat | direct_length" NumberOfComponents="1" type="Float64">26.263966786897633	29.181685450982126	36.61224455286684	40.74313169862512	36.07866701279007	32.02729958514175	32.20344337308732	28.492429912862228	15.043879718791427	30.13061378894177	25.67366220544086	12.301563483011225	10.006889611817886	31.747260212297522	25.05595899089602	23.002618233203386	17.830545682249443	36.261410528282376	18.295050233514814</DataArray>
			<DataArray Name="network | properties | throat | equivalent_diameter" NumberOfComponents="1" type="Float64">5.527906391541368	4.787307364817192	3.9088200952233594	1.5957691216057308	1.1283791670955126	5.641895835477563	4.787307364817192	4.51351666838205	4.222008245644752	3.1915382432114616	2.985410660720923	3.9088200952233594	4.068428945128219	2.256758334191025	5.753627391751592	3.742410318509555	2.763953195770684	1.1283791670955126	1.5957691216057308</DataArray>
			<DataArray Name="network | properties | throat | inscribed_diameter" NumberOfComponents="1" type="Float64">22.090721130371094	18.867961883544922	16.970561981201172	2.8284270763397217	2.0	23.323806762695312	17.0880069732666	16.124515533447266	14.0	7.211102485656738	7.211102485656738	12.0	11.661903381347656	4.0	29.73213768005371	12.0	12.0	2.0	4.0</DataArray>
			<DataArray Name="network | properties | throat | perimeter" NumberOfComponents="1" type="Float64">3.0	2.0	2.0	2.0	1.0	2.0	2.0	2.0	2.0	3.0	2.0	2.0	3.0	2.0	2.0	2.0	1.0	1.0	1.0</DataArray>
			<DataArray Name="network | properties | throat | total_length" NumberOfComponents="1" type="Float64">26.3094044483096	29.25010460787022	37.40725926255732	41.218678007919515	41.312062827697446	32.462657000072326	32.90985150843378	28.524432429716022	15.270200861806341	30.18336449733208	25.674784480515633	12.319119521472215	10.466800900123605	32.79716897883814	25.068066546178255	23.41581454867234	21.492246575211198	38.084572987152995	18.977532100189336</DataArray>
			</CellData>
        </Piece>
    </PolyData>
</VTKFile>