<VTKFile byte_order="LittleEndian" type="PolyData" version="0.1">
    <PolyData>
        <Piece NumberOfLines="270" NumberOfPoints="220">
            <Points>
            <DataArray Name="coords" NumberOfComponents="3" type="Float64">2.4018197199533256e-05	9.553641773628938e-05	0.00040572105017502917	2.5966507760532146e-05	0.00018172999999999998	0.0005309445676274944	2.5815684647302907e-05	0.00022318147302904562	0.00018450230290456432	4.357437458416501e-05	0.0002722518246839654	4.423049733865602e-05	1.9672569444444442e-05	0.00036932465277777777	0.00022619743055555554	4.53578716981132e-05	0.0004330781207547169	5.4823564150943395e-05	3.273034914950761e-05	0.0004214247784243509	0.00014961932632050133	3.522548192771084e-05	2.36339156626506e-05	0.0003799779819277108	4.988173949115044e-05	3.922130254424778e-05	5.7352323008849556e-05	7.629158369408369e-05	0.0001882550649350649	0.00034913435876623376	4.693122208436724e-05	0.000246592834987593	0.00048459785980148876	6.228235049019607e-05	0.00010327116421568626	8.883180392156861e-05	5.677459545686575e-05	0.0004541353739152629	0.0004973455653394589	6.0652086311159976e-05	0.0005058855909840571	0.00022034094007696532	8.515762711864407e-05	9.072911016949151e-05	0.0005310725564971751	9.593448453608247e-05	0.000539955206185567	0.0004901420103092783	0.00010845737133808393	0.0002084634639746635	0.00017905961599366587	0.0001174612048192771	0.0003275905421686747	0.00023331246987951803	0.00010585985697018533	0.00045373206822455007	0.00035423797273704004	0.00013153834597327555	9.393610689779703e-05	0.0001750878385698808	0.00013905538338658145	0.00043840953674121404	0.0002156784345047923	0.00012536454545454545	0.00044940112121212117	0.0005223522727272726	0.00014728647532975085	6.110759811105683e-05	0.000390554911252239	0.00015443471757322174	0.0002627511052998605	0.0003937557880055788	0.00015458501007387508	0.00034132617192746806	2.5353750839489588e-05	0.00014213668013715404	0.0005089204506490326	9.387851702179767e-05	0.00019330294985250737	7.32848377581121e-05	0.0005082637758112094	0.00019511043624161073	0.00011246023489932885	0.00033006271812080533	0.00019278262979930191	0.0003957025698080279	0.0005027972938481675	0.00018246903602726387	0.0004952408795845505	0.00048524654495293737	0.00020401971072990245	0.0002981705762977912	0.00014761345049893487	0.000203427359375	0.00042875251562499996	0.00010980634375	0.00020921574128984435	0.00021450725166790216	5.845028910303928e-05	0.00021981752055921054	0.0004183209745065789	0.0004185495435855263	0.00023040875706214687	0.00034114387005649714	0.000539120254237288	0.00010924746957168075	0.00036092083944996747	0.0003383757953172907	0.0002290296593090211	8.333480806142033e-05	0.00018928071017274473	0.00023991932133358662	0.0005209755456876899	0.0004230332945478723	0.00020669018921475876	0.0001468509673604541	0.0005219693377483443	0.00026287681818181814	2.2837727272727276e-05	0.00022074849999999998	0.00026710384765624997	8.957050781249999e-05	0.00039534208984375	0.0002769508279220779	0.00016982522727272727	9.343337662337661e-05	0.0002666695475113122	0.0005390952488687783	7.809504524886877e-05	0.0002716965082898373	0.00030984753300583356	0.0003354410078292908	0.0002804756458573072	0.0004327281861334867	9.925769562715764e-05	0.00029805830472103	0.00025151321888412017	0.0002579363948497854	0.00028353074712643677	2.3760675287356316e-05	6.814875e-05	0.00027348128052243043	6.743927030096536e-05	0.0005271578336172629	0.0003194419348404255	8.535296875e-05	4.366267952127659e-05	0.0003042736174863388	0.00017568985792349725	0.0002827826284153005	0.0003144317727272727	0.0002914045409090909	0.0001615647727272727	0.0003563038842975206	0.0005256873760330578	0.0005299501239669421	0.0003351597791867075	0.0004741800273283777	0.0003117266167468299	0.00036748791395045633	0.0001449839960886571	7.304601043024772e-05	0.000351563528867194	0.00020242399385625315	0.0005150916491331426	0.0003803303400836452	0.0003111335912392692	0.0004022291921637684	0.00036449678907721277	0.00037028468926553665	0.00016899661958568737	0.00034675063084112147	6.625166100254885e-05	0.0003730896282922684	0.0003988958927000879	0.00044803980650835534	6.155446789797713e-05	0.00041624360365459246	0.0002364808125808538	0.0001781175440653299	0.000407589824120603	0.0004959300502512563	0.00030702861809045224	0.0004213809748427673	0.0004775202830188679	0.0005236923427672955	0.00047321989943830404	6.0891743069396626e-05	0.0004834556858126472	0.0004294496321525885	0.000238558855585831	4.351732970027247e-05	0.00041303074226804124	0.00036235793814432985	7.533694845360824e-05	0.000429568499684144	0.0005234926089703096	0.00012474818066961465	0.0004377396992864424	5.233305300713557e-05	0.00027469812945973496	0.00044830080110497234	0.00012169472375690607	0.00022041480662983424	0.0004534993787777031	0.00041855765278710536	0.00043588133982538614	0.000456583001626898	0.0002200783459869848	0.0003323885642624729	0.00046036477104874444	0.00039567605982274737	2.947645125553914e-05	0.0004657556260434057	9.936881469115192e-05	0.0003625766026711185	0.00046786233644859814	0.00013794595794392521	0.0001498348364485981	0.0004723402786885246	0.00024174198542805097	0.0002563867012750455	0.0004831360856852275	0.0005000360977625222	0.0002683093510043224	0.0004626804022988505	3.3544482758620686e-05	0.00013901095785440613	0.000490319105785473	0.00020477579814189186	8.684383551520269e-05	0.0004512233610188261	0.0004962089645625692	0.0001982444518272425	0.00045876144665461116	0.000533765424954792	0.0005202531103074141	0.0004916103780313837	0.00033964386947218255	0.00038728375534950065	0.0004894859416543574	0.00034757105982274737	0.0005290444682422451	0.0004962015289256198	0.0005367970247933884	0.0004290577272727272	0.000511231060209424	0.00037599696335078534	0.0003221411910994764	0.0005285544382022471	0.0004044983895131086	0.0002753175468164794	0.0005361446153846153	2.334440170940171e-05	0.00041686431623931617	0.0005323912542759406	4.738583238312428e-05	0.0002180113968072976	0.0005385564732142857	0.0001730920982142857	0.000532495625	0.00053083194598888	0.00018742737092930894	0.00040608839158061947	0.0005380210385756677	0.00024196037833827889	6.363246290801187e-05	0.0005307224156118144	0.00029165206751054847	0.00014508179324894513	0.0005139355516431925	0.0003229417214397496	0.00019858055164319248	0.0005067615324675324	0.0004780373636363636	0.0004201655909090909	5.345e-06	3.441301369863013e-05	5.352321917808219e-05	5.345e-06	1.7816666666666665e-05	0.00038305833333333335	5.345e-06	9.445088607594937e-05	0.0004048330063291139	5.345e-06	0.00011986657407407405	0.00014174148148148147	5.345e-06	0.00017285957446808511	0.0005393901063829786	5.345e-06	0.00020293183333333333	0.0003394965833333333	5.345e-06	0.00025246969483568076	3.69131220657277e-05	5.345e-06	0.0002172585294117647	0.0001905335294117647	5.345e-06	0.00026724999999999996	0.00031535499999999996	5.345e-06	0.000283285	8.552e-05	5.345e-06	0.00036193642523364483	0.00034510217289719625	5.345e-06	0.00040880898437499995	0.00014686222656249998	5.345e-06	0.00036746874999999996	0.000219145	5.345e-06	0.0004272963068181818	4.528065340909091e-05	5.345e-06	0.00046274742424242424	0.00036912893939393935	5.345e-06	0.0004516525	0.00054519	5.345e-06	0.00049174	0.0005077749999999999	5.345e-06	0.0005037257575757576	0.0004813739393939394	5.345e-06	0.00052033575	0.00024239575	5.345e-06	0.00054519	0.0002138	4.7191324786324784e-05	5.345e-06	5.08917094017094e-05	3.10678125e-05	5.345e-06	0.000379495	5.5905810810810806e-05	3.0047567567567562e-05	5.345e-06	2.1258522727272727e-05	0.00017990784090909088	0.0005558799999999999	3.523915929203539e-05	0.0002723111946902655	5.345e-06	3.9891951219512196e-05	0.00041915881097560973	5.345e-06	3.97534375e-05	0.00045822239583333333	0.0005558799999999999	1.6034999999999998e-05	0.0005558799999999999	0.0002138	5.345e-05	0.00041156499999999997	0.0005558799999999999	6.307099999999999e-05	0.000403013	0.0005558799999999999	6.413999999999999e-05	0.0005558799999999999	0.00021513625	0.0001152029126213592	5.345e-06	0.000485876067961165	6.413999999999999e-05	1.6034999999999998e-05	0.0005558799999999999	6.413999999999999e-05	0.0001069	0.0005558799999999999	6.413999999999999e-05	0.0005131199999999999	0.0005558799999999999	6.710944444444443e-05	0.0005558799999999999	0.0005149016666666666	8.80856e-05	8.958219999999998e-05	0.0005558799999999999	7.589899999999999e-05	0.0005350344999999999	0.0005558799999999999	7.661166666666667e-05	0.0005558799999999999	0.0005434083333333334	0.00011996555555555553	0.0005558799999999999	8.624586419753086e-05	8.552e-05	5.345e-06	8.552e-05	8.552e-05	6.681249999999999e-05	5.345e-06	9.086499999999999e-05	7.483e-05	5.345e-06	0.0002394083375796178	0.0005558799999999999	0.0004227860955414012	9.300299999999999e-05	0.0005558799999999999	0.000487464	0.0001069	0.00050243	0.0005558799999999999	0.00012471666666666664	5.345e-06	0.00031968190476190476	0.00015105792307692307	0.00030680299999999997	5.345e-06	0.00015160363636363637	0.0003866621590909091	5.345e-06	0.00013825733333333332	0.00045076166666666663	0.0005558799999999999	0.00019794316666666665	0.0002324481111111111	5.345e-06	0.00014849078124999998	0.0005558799999999999	0.00047219734375	0.00019928513761467888	0.00042227951834862386	0.0005558799999999999	0.00016035	5.345e-06	0.0004276	0.000165695	5.345e-06	0.00042225499999999996	0.00016836749999999998	0.0005558799999999999	6.948499999999999e-05	0.00017104	5.345e-06	0.00041691	0.00019923487499999998	0.00013255599999999998	0.0005558799999999999	0.00017104	0.00041691	5.345e-06	0.00017638499999999999	5.345e-06	0.00041156499999999997	0.00017638499999999999	0.00042225499999999996	5.345e-06	0.0001844025	0.00043294499999999996	5.345e-06	0.00019193409090909088	0.0004985427272727272	5.345e-06	0.00023161666666666667	0.00034131642857142855	0.0005558799999999999	0.000278110585106383	6.283218085106383e-05	0.0005558799999999999	0.00026826809523809524	5.345e-06	0.0005281369047619047	0.00026867533333333333	0.0005558799999999999	8.979599999999999e-05	0.000261905	5.345e-06	0.00022983499999999998	0.000261905	0.00054519	5.345e-06	0.000261905	0.0005558799999999999	1.6034999999999998e-05	0.00026724999999999996	5.345e-06	0.000219145	0.0003249401675977654	8.24145251396648e-05	5.345e-06	0.0003599136754176611	0.00019028327565632458	0.0005558799999999999	0.0003000096774193548	0.0005151890322580645	0.0005558799999999999	0.00030325014705882353	5.345e-06	6.681249999999999e-05	0.0003180868888888889	0.0003381603333333333	5.345e-06	0.00030359599999999994	5.345e-06	0.00039606449999999996	0.00029575666666666663	0.00042581833333333333	5.345e-06	0.0003207	5.345e-06	0.00036078749999999995	0.00034608874999999997	0.000518465	0.0005558799999999999	0.00035276999999999997	0.000529155	0.0005558799999999999	0.0004204733333333333	5.345e-06	0.0005333924774774774	0.0003661325	0.00034208	5.345e-06	0.000368805	0.0004276	5.345e-06	0.00043010118589743585	4.156080128205128e-05	0.0005558799999999999	0.00037682249999999997	0.000347425	5.345e-06	0.0003872155555555555	0.00043888388888888887	5.345e-06	0.00040889249999999995	5.345e-06	0.0003064466666666667	0.0004035475	0.00036345999999999997	5.345e-06	0.00040087499999999997	0.0005558799999999999	9.086499999999999e-05	0.0004659527192982456	0.0003992339912280702	5.345e-06	0.00041156499999999997	0.00044898	0.0005558799999999999	0.00041691	0.00045432499999999994	0.0005558799999999999	0.00042225499999999996	5.345e-06	0.000283285	0.00045091887254901955	0.0005558799999999999	0.00013058568627450978	0.0004738119791666666	0.0005558799999999999	0.0005210261458333333	0.0004997163846153846	0.0003549902307692307	0.0005558799999999999	0.0004976417708333333	0.0005558799999999999	0.00024197260416666667	0.000465015	5.345e-06	0.000208455	0.00048045611111111107	0.0005410327777777777	0.0005558799999999999	0.0004795228571428571	5.345e-06	0.0001366792857142857	0.000500292	0.0005558799999999999	0.00042653099999999996	0.00050911125	0.00011358124999999999	5.345e-06	0.000518465	5.345e-06	0.000165695	0.0005328296874999999	5.345e-06	0.00019821041666666668	0.000518465	0.000122935	5.345e-06	0.000518465	0.0005558799999999999	0.00033673499999999995	0.0005264824999999999	0.00044898	5.345e-06	0.000529155	0.0005558799999999999	0.0003447525	0.0005386115384615384	5.345e-06	0.0004136207692307692	0.000540914	0.00017852299999999998	0.0005558799999999999	0.0005558799999999999	4.773455445544554e-05	0.0002118419306930693	0.0005558799999999999	2.186590909090909e-05	0.00041593818181818174	0.0005558799999999999	6.0933e-05	0.000434014	0.0005558799999999999	0.00018993839285714285	0.00040889249999999995	0.0005558799999999999	0.0001747815	0.0005344999999999999	0.0005558799999999999	0.0002457525274725275	6.196675824175824e-05	0.0005558799999999999	0.00025753181818181817	0.0002385813636363636	0.0005558799999999999	0.0002898876470588235	0.00014117088235294118	0.0005558799999999999	0.000285423	0.00025549099999999994	0.0005558799999999999	0.00028863	0.0004276	0.0005558799999999999	0.00029932	0.00024587	0.0005558799999999999	0.00031394842105263155	0.00022139552631578944	0.0005558799999999999	0.0003655157692307692	0.0005410784615384615	0.0005558799999999999	0.00040622	0.00026724999999999996	0.0005558799999999999	0.00047258708333333335	0.00042670916666666663	0.0005558799999999999	0.0005058313636363636	0.00032377742424242426	0.0005558799999999999	0.0005369669230769231	0.0002068103846153846</DataArray>
			</Points>
            <Lines>
            <DataArray Name="connectivity" NumberOfComponents="1" type="Int32">0	7	0	9	0	94	1	10	1	14	1	96	1	115	2	16	2	30	2	99	3	5	3	24	3	98	3	101	3	116	4	6	4	104	5	6	5	24	5	25	5	105	5	117	6	13	6	25	6	103	7	93	7	113	8	11	8	92	8	112	8	114	8	132	9	22	9	23	9	35	9	97	10	23	11	19	11	95	11	133	11	134	12	15	12	18	12	21	12	28	12	35	12	107	12	108	12	109	12	118	12	120	12	121	12	126	12	127	12	129	12	130	12	137	13	18	13	20	13	25	13	110	13	111	13	119	13	122	14	22	14	125	14	128	15	136	16	19	16	30	17	30	17	35	18	33	18	35	18	37	18	106	19	22	19	32	19	36	21	28	21	141	22	26	22	27	22	38	22	123	22	124	22	138	22	145	22	146	22	148	22	151	23	35	23	43	24	25	24	32	24	139	24	140	24	150	24	152	24	153	25	31	25	42	25	131	25	147	25	154	26	38	26	47	28	29	28	33	28	34	28	35	28	144	29	33	29	37	29	143	30	32	30	35	30	43	30	50	30	64	30	70	30	167	30	174	30	177	31	44	32	41	32	142	33	37	33	43	34	155	35	43	35	100	35	102	36	39	37	51	37	52	37	135	37	165	38	47	38	54	38	149	39	159	39	162	40	47	40	57	41	48	42	44	42	158	42	160	42	161	43	45	43	49	43	52	43	55	44	58	44	169	46	48	46	166	47	54	47	57	47	156	47	157	48	53	48	163	49	57	50	56	50	59	51	78	51	171	51	172	52	55	52	60	52	74	52	77	53	59	54	55	54	62	54	80	54	164	55	68	55	69	55	79	56	59	57	71	57	168	57	170	58	65	58	70	58	175	58	178	59	67	59	72	59	73	59	76	59	89	59	90	60	74	61	78	61	183	61	184	62	71	62	84	62	87	62	173	62	176	62	205	63	76	64	70	65	74	65	181	65	186	66	67	66	71	66	85	66	179	66	185	66	190	68	74	68	79	68	80	68	91	69	71	69	73	69	79	70	180	70	182	70	199	72	76	73	90	73	209	74	77	74	91	74	189	74	198	74	200	74	218	74	219	75	85	75	192	76	88	76	89	76	194	76	197	78	81	78	187	78	191	79	82	80	188	80	215	81	91	81	193	82	83	83	216	84	201	84	204	85	195	85	196	85	203	86	202	86	207	87	206	87	212	88	89	88	208	89	90	89	210	90	211	90	213	90	214	91	217</DataArray>
			<DataArray Name="offsets" NumberOfComponents="1" type="Int32">2	4	6	8	10	12	14	16	18	20	22	24	26	28	30	32	34	36	38	40	42	44	46	48	50	52	54	56	58	60	62	64	66	68	70	72	74	76	78	80	82	84	86	88	90	92	94	96	98	100	102	104	106	108	110	112	114	116	118	120	122	124	126	128	130	132	134	136	138	140	142	144	146	148	150	152	154	156	158	160	162	164	166	168	170	172	174	176	178	180	182	184	186	188	190	192	194	196	198	200	202	204	206	208	210	212	214	216	218	220	222	224	226	228	230	232	234	236	238	240	242	244	246	248	250	252	254	256	258	260	262	264	266	268	270	272	274	276	278	280	282	284	286	288	290	292	294	296	298	300	302	304	306	308	310	312	314	316	318	320	322	324	326	328	330	332	334	336	338	340	342	344	346	348	350	352	354	356	358	360	362	364	366	368	370	372	374	376	378	380	382	384	386	388	390	392	394	396	398	400	402	404	406	408	410	412	414	416	418	420	422	424	426	428	430	432	434	436	438	440	442	444	446	448	450	452	454	456	458	460	462	464	466	468	470	472	474	476	478	480	482	484	486	488	490	492	494	496	498	500	502	504	506	508	510	512	514	516	518	520	522	524	526	528	530	532	534	536	538	540</DataArray>
			</Lines>
            <PointData>
            <DataArray Name="network | labels | pore | all" NumberOfComponents="1" type="Int32">1	1	1	1	1	1	1	1	1	1	1	1	1	1	1	1	1	1	1	1	1	1	1	1	1	1	1	1	1	1	1	1	1	1	1	1	1	1	1	1	1	1	1	1	1	1	1	1	1	1	1	1	1	1	1	1	1	1	1	1	1	1	1	1	1	1	1	1	1	1	1	1	1	1	1	1	1	1	1	1	1	1	1	1	1	1	1	1	1	1	1	1	1	1	1	1	1	1	1	1	1	1	1	1	1	1	1	1	1	1	1	1	1	1	1	1	1	1	1	1	1	1	1	1	1	1	1	1	1	1	1	1	1	1	1	1	1	1	1	1	1	1	1	1	1	1	1	1	1	1	1	1	1	1	1	1	1	1	1	1	1	1	1	1	1	1	1	1	1	1	1	1	1	1	1	1	1	1	1	1	1	1	1	1	1	1	1	1	1	1	1	1	1	1	1	1	1	1	1	1	1	1	1	1	1	1	1	1	1	1	1	1	1	1	1	1	1	1	1	1</DataArray>
			<DataArray Name="network | labels | pore | boundary" NumberOfComponents="1" type="Int32">0	0	0	0	0	0	0	0	0	0	0	0	0	0	0	0	0	0	0	0	0	0	0	0	0	0	0	0	0	0	0	0	0	0	0	0	0	0	0	0	0	0	0	0	0	0	0	0	0	0	0	0	0	0	0	0	0	0	0	0	0	0	0	0	0	0	0	0	0	0	0	0	0	0	0	0	0	0	0	0	0	0	0	0	0	0	0	0	0	0	0	0	1	1	1	1	1	1	1	1	1	1	1	1	1	1	1	1	1	1	1	1	1	1	1	1	1	1	1	1	1	1	1	1	1	1	1	1	1	1	1	1	1	1	1	1	1	1	1	1	1	1	1	1	1	1	1	1	1	1	1	1	1	1	1	1	1	1	1	1	1	1	1	1	1	1	1	1	1	1	1	1	1	1	1	1	1	1	1	1	1	1	1	1	1	1	1	1	1	1	1	1	1	1	1	1	1	1	1	1	1	1	1	1	1	1	1	1	1	1	1	1	1	1	1	1	1	1	1	1</DataArray>
			<DataArray Name="network | labels | pore | xmax" NumberOfComponents="1" type="Int32">0	0	0	0	0	0	0	0	0	0	0	0	0	0	0	0	0	0	0	0	0	0	0	0	0	0	0	0	0	0	0	0	0	0	0	0	0	0	0	0	0	0	0	0	0	0	0	0	0	0	0	0	0	0	0	0	0	0	0	0	0	0	0	0	0	0	0	0	0	0	0	0	0	0	0	0	0	0	0	0	0	0	0	0	0	0	0	0	0	0	0	0	0	0	0	0	0	0	0	0	0	0	0	0	0	0	0	0	0	0	0	0	0	0	0	0	0	0	0	0	0	0	0	0	0	0	0	0	0	0	0	0	0	0	0	0	0	0	0	0	0	0	0	0	0	0	0	0	0	0	0	0	0	0	0	0	0	0	0	0	0	0	0	0	0	0	0	0	0	0	0	0	0	0	0	0	0	0	0	0	0	0	0	0	0	0	0	0	0	0	0	0	0	0	0	0	0	0	0	0	0	0	0	1	1	1	1	1	1	1	1	1	1	1	1	1	1	1	1	1</DataArray>
			<DataArray Name="network | labels | pore | xmin" NumberOfComponents="1" type="Int32">0	0	0	0	0	0	0	0	0	0	0	0	0	0	0	0	0	0	0	0	0	0	0	0	0	0	0	0	0	0	0	0	0	0	0	0	0	0	0	0	0	0	0	0	0	0	0	0	0	0	0	0	0	0	0	0	0	0	0	0	0	0	0	0	0	0	0	0	0	0	0	0	0	0	0	0	0	0	0	0	0	0	0	0	0	0	0	0	0	0	0	0	1	1	1	1	1	1	1	1	1	1	1	1	1	1	1	1	1	1	1	1	0	0	0	0	0	0	0	0	0	0	0	0	0	0	0	0	0	0	0	0	0	0	0	0	0	0	0	0	0	0	0	0	0	0	0	0	0	0	0	0	0	0	0	0	0	0	0	0	0	0	0	0	0	0	0	0	0	0	0	0	0	0	0	0	0	0	0	0	0	0	0	0	0	0	0	0	0	0	0	0	0	0	0	0	0	0	0	0	0	0	0	0	0	0	0	0	0	0	0	0	0	0	0	0	0	0	0	0</DataArray>
			<DataArray Name="network | labels | pore | ymax" NumberOfComponents="1" type="Int32">0	0	0	0	0	0	0	0	0	0	0	0	0	0	0	0	0	0	0	0	0	0	0	0	0	0	0	0	0	0	0	0	0	0	0	0	0	0	0	0	0	0	0	0	0	0	0	0	0	0	0	0	0	0	0	0	0	0	0	0	0	0	0	0	0	0	0	0	0	0	0	0	0	0	0	0	0	0	0	0	0	0	0	0	0	0	0	0	0	0	0	0	0	0	0	0	0	0	0	0	0	0	0	0	0	0	0	0	0	0	0	0	0	0	0	0	0	0	0	1	0	0	1	0	0	0	0	1	0	0	1	1	0	0	0	1	1	0	0	0	0	0	0	1	0	0	0	1	0	0	0	0	0	0	0	0	0	0	1	0	0	1	0	0	0	0	0	0	0	0	0	0	0	0	0	0	0	0	0	0	0	1	0	0	0	0	1	1	0	1	0	0	0	1	0	0	0	0	1	0	1	0	0	0	0	0	0	0	0	0	0	0	0	0	0	0	0	0	0	0</DataArray>
			<DataArray Name="network | labels | pore | ymin" NumberOfComponents="1" type="Int32">0	0	0	0	0	0	0	0	0	0	0	0	0	0	0	0	0	0	0	0	0	0	0	0	0	0	0	0	0	0	0	0	0	0	0	0	0	0	0	0	0	0	0	0	0	0	0	0	0	0	0	0	0	0	0	0	0	0	0	0	0	0	0	0	0	0	0	0	0	0	0	0	0	0	0	0	0	0	0	0	0	0	0	0	0	0	0	0	0	0	0	0	0	0	0	0	0	0	0	0	0	0	0	0	0	0	0	0	0	0	0	0	1	1	0	0	0	0	0	0	0	0	0	1	0	0	0	0	0	0	0	0	1	0	0	0	0	0	1	0	0	0	0	0	0	1	1	0	1	0	0	1	0	0	0	0	0	1	0	1	0	0	1	0	0	0	1	0	1	0	1	0	0	1	0	0	0	0	0	1	0	0	0	0	0	1	0	0	0	0	1	0	1	0	0	1	1	0	0	0	0	1	0	0	0	0	0	0	0	0	0	0	0	0	0	0	0	0	0	0</DataArray>
			<DataArray Name="network | labels | pore | zmax" NumberOfComponents="1" type="Int32">0	0	0	0	0	0	0	0	0	0	0	0	0	0	0	0	0	0	0	0	0	0	0	0	0	0	0	0	0	0	0	0	0	0	0	0	0	0	0	0	0	0	0	0	0	0	0	0	0	0	0	0	0	0	0	0	0	0	0	0	0	0	0	0	0	0	0	0	0	0	0	0	0	0	0	0	0	0	0	0	0	0	0	0	0	0	0	0	0	0	0	0	0	0	0	0	0	0	0	0	0	0	0	0	0	0	0	0	0	0	0	0	0	0	0	1	0	0	1	0	1	1	0	0	1	1	1	0	1	1	0	0	0	0	0	0	0	1	0	0	0	1	0	0	1	0	0	0	0	1	0	0	0	0	0	1	1	0	0	0	0	0	0	0	1	1	0	0	0	0	0	1	1	0	0	0	1	0	0	0	0	0	0	1	1	0	0	0	1	0	0	1	0	0	0	0	0	0	0	0	0	0	1	0	0	0	0	0	0	0	0	0	0	0	0	0	0	0	0	0</DataArray>
			<DataArray Name="network | labels | pore | zmin" NumberOfComponents="1" type="Int32">0	0	0	0	0	0	0	0	0	0	0	0	0	0	0	0	0	0	0	0	0	0	0	0	0	0	0	0	0	0	0	0	0	0	0	0	0	0	0	0	0	0	0	0	0	0	0	0	0	0	0	0	0	0	0	0	0	0	0	0	0	0	0	0	0	0	0	0	0	0	0	0	0	0	0	0	0	0	0	0	0	0	0	0	0	0	0	0	0	0	0	0	0	0	0	0	0	0	0	0	0	0	0	0	0	0	0	0	0	0	0	0	0	0	1	0	1	1	0	0	0	0	0	0	0	0	0	0	0	0	0	0	0	1	1	0	0	0	0	1	1	0	1	0	0	0	0	0	0	0	1	0	1	1	1	0	0	0	0	0	1	0	0	1	0	0	0	1	0	1	0	0	0	0	1	1	0	1	1	0	1	0	1	0	0	0	0	0	0	0	0	0	0	0	1	0	0	1	0	1	0	0	0	0	0	0	0	0	0	0	0	0	0	0	0	0	0	0	0	0</DataArray>
			<DataArray Name="network | properties | pore | equivalent_diameter" NumberOfComponents="1" type="Float64">6.29905077960567e-05	5.085578347951588e-05	4.126867414010251e-05	9.570717431559748e-05	2.758834622346717e-05	9.176916781191411e-05	8.669137508182491e-05	3.6446083412532635e-05	8.078814646402045e-05	0.00011736967697251314	6.17153480679991e-05	0.00010596641045589342	0.00010454493076140306	8.095165557818252e-05	4.691185318366671e-05	3.046997375843692e-05	7.168296362690404e-05	2.8927275574587525e-05	0.00012949584863425863	9.312275602127375e-05	4.502595655373549e-05	4.5826794696312016e-05	0.00012143984416007949	0.00010785450851657386	7.572624136388496e-05	0.00010599237625219263	4.6239670943424404e-05	3.51568744653752e-05	0.00011016146557629811	9.649661259973885e-05	0.00013752665820353406	4.5359141711416104e-05	9.231993369266139e-05	7.078252110071305e-05	3.723396254676513e-05	0.00014641737468455474	6.72311812343094e-05	0.00014534389491271664	8.511050415833048e-05	3.177452477003981e-05	4.210769713399373e-05	5.642545539357547e-05	4.0093957591002645e-05	0.0001238504018872866	0.00010045574019215437	4.080688797693138e-05	4.664530281014469e-05	8.008194650913064e-05	9.57283954192454e-05	6.43806267310458e-05	6.845613842385113e-05	4.132567514368131e-05	0.00011008130147756392	6.0703438225912336e-05	0.00015132523306045844	0.00010983204780560292	5.3700666483914144e-05	8.821660126056778e-05	6.921522850541981e-05	0.00015336090438829823	3.871677674978275e-05	4.5264445941800345e-05	0.00011719298965025679	4.7479214301760965e-05	5.2102922222797284e-05	7.728736016222026e-05	8.301970193273078e-05	3.751235765003647e-05	7.572624136388496e-05	0.00010245782670823069	7.336479756921411e-05	5.590154052166226e-05	3.966609307099743e-05	9.285293123897245e-05	0.0001318862387393504	4.23800701476024e-05	0.000111365857824259	6.409794196251891e-05	5.44322824972186e-05	7.42216901943647e-05	7.336479756921411e-05	3.2800210098187895e-05	4.8117452147087146e-05	4.270236442859855e-05	3.243471772604416e-05	6.347675249297594e-05	3.196594218704145e-05	7.160720878724526e-05	5.814353971610075e-05	5.1706000890843974e-05	7.196562807975533e-05	6.078247925038282e-05	3.997264381590234e-05	1.3794173111733585e-05	5.1706000890843974e-05	3.615096047280355e-05	3.4516059289906094e-05	3.744314650084942e-05	5.7119156859677895e-05	2.4592625375505166e-05	9.56434544736486e-06	9.56434544736486e-06	5.720840568741972e-05	6.0729808098136944e-05	1.5182452024534236e-05	5.359934423098225e-05	3.865181559294651e-05	1.2050320157601183e-05	9.56434544736486e-06	3.067796636636208e-05	2.5961627773526465e-05	9.56434544736486e-06	4.677895770342927e-05	2.4100640315202366e-05	3.1870520896399675e-05	3.376547102858794e-05	5.825833476183273e-05	5.235239282228264e-05	3.4759138138734017e-05	9.56434544736486e-06	9.56434544736486e-06	1.6354800660700683e-05	1.5182452024534236e-05	4.483332978531427e-05	9.56434544736486e-06	9.56434544736486e-06	9.56434544736486e-06	1.989464024314377e-05	2.7966315742490316e-05	2.060575761925137e-05	1.3794173111733585e-05	4.138251933520076e-05	9.56434544736486e-06	1.2050320157601183e-05	9.56434544736486e-06	8.822909122268576e-05	1.6354800660700683e-05	9.56434544736486e-06	2.6387303885995615e-05	4.845103265691203e-05	3.376547102858794e-05	2.3587704225358878e-05	4.286170308553329e-05	3.0364904049068472e-05	5.756264632828807e-05	9.56434544736486e-06	9.56434544736486e-06	1.2050320157601183e-05	9.56434544736486e-06	4.717540845071775e-05	9.56434544736486e-06	9.56434544736486e-06	9.56434544736486e-06	1.5182452024534236e-05	2.127091385426672e-05	2.6387303885995615e-05	5.479082882659368e-05	3.324591961593866e-05	2.3587704225358878e-05	9.56434544736486e-06	9.56434544736486e-06	9.56434544736486e-06	1.3794173111733585e-05	5.390217181082758e-05	9.017163129298284e-05	3.004524974113967e-05	3.098476638277777e-05	3.401935628356208e-05	2.971864507222389e-05	1.3794173111733585e-05	1.2050320157601183e-05	1.5182452024534236e-05	9.56434544736486e-06	4.596524506830571e-05	1.2050320157601183e-05	9.56434544736486e-06	5.148690503861411e-05	1.2050320157601183e-05	1.989464024314377e-05	2.5065676022422494e-05	1.2050320157601183e-05	9.56434544736486e-06	4.637567075877584e-05	9.56434544736486e-06	9.56434544736486e-06	9.56434544736486e-06	4.468776600163667e-05	3.4759138138734017e-05	4.845103265691203e-05	4.379376981719469e-05	9.56434544736486e-06	1.989464024314377e-05	1.8295934649071375e-05	1.6354800660700683e-05	1.5182452024534236e-05	9.56434544736486e-06	3.4759138138734017e-05	9.56434544736486e-06	9.56434544736486e-06	1.2050320157601183e-05	1.5182452024534236e-05	2.24889772157331e-05	1.6354800660700683e-05	4.454124768429848e-05	2.127091385426672e-05	2.7966315742490316e-05	4.610286638373199e-05	2.060575761925137e-05	4.3019865784633625e-05	2.127091385426672e-05	3.098476638277777e-05	1.6354800660700683e-05	9.56434544736486e-06	9.56434544736486e-06	2.5521515160694616e-05	2.24889772157331e-05	9.56434544736486e-06	2.1896884908597345e-05	3.067796636636208e-05	2.24889772157331e-05</DataArray>